# t (s)	mx ()	my ()	mz ()
0	-5.960465e-11	-1.4305115e-09	0.9997274
1.1691554717132431e-12	0.0002042794	1.5853406e-05	0.99972665
2.207011155827838e-12	0.00038023043	5.2641393e-05	0.9997253
3.2662598600948486e-12	0.00055029435	0.000111211775	0.99972373
4.174773423894021e-12	0.00068554067	0.00017725705	0.99972236
5.058214156454365e-12	0.0008053844	0.0002542906	0.99972093
6.088099202339836e-12	0.00092807185	0.0003583107	0.9997194
7.0772325677707226e-12	0.0010263625	0.00047057724	0.9997179
8.036404567290357e-12	0.0011015176	0.00058883044	0.9997167
9.15560503352769e-12	0.0011622211	0.0007354493	0.9997153
1.0073370063212663e-11	0.0011892361	0.0008600674	0.99971455
1.1165543437336058e-11	0.0011939391	0.0010102425	0.9997137
1.2065515519109078e-11	0.0011753481	0.0011329885	0.99971324
1.313483912793368e-11	0.001127413	0.0012745595	0.99971294
1.40206914298156e-11	0.0010673074	0.0013860307	0.99971277
1.50818927960994e-11	0.0009725771	0.0015099283	0.9997128
1.614474380514661e-11	0.00085511693	0.0016208034	0.9997129
1.702963573908463e-11	0.0007420964	0.0017012086	0.9997131
1.8086668775497936e-11	0.00059171376	0.0017810587	0.9997135
1.913682186709591e-11	0.0004289881	0.0018417373	0.99971396
2.00029415344127e-11	0.00028720667	0.0018763581	0.9997143
2.103233343881101e-11	0.00011348901	0.0018980417	0.99971485
2.2057503022782925e-11	-6.1606035e-05	0.0019000612	0.9997153
2.3084276971457923e-11	-0.00023576972	0.0018822028	0.99971586
2.4113100625116565e-11	-0.0004051125	0.001842782	0.9997164
2.5141003998941507e-11	-0.0005646867	0.0017824068	0.99971694
2.6168553021389508e-11	-0.00071074197	0.001704185	0.99971753
2.702531493324211e-11	-0.00082023157	0.0016279054	0.99971795
2.8054330052747784e-11	-0.0009352438	0.0015249985	0.9997185
2.9085457024471716e-11	-0.001030716	0.0014103417	0.9997191
3.0120029680879607e-11	-0.0011045358	0.0012841868	0.99971956
3.1157337278630425e-11	-0.0011541916	0.0011479688	0.99972
3.202112508528961e-11	-0.0011754875	0.0010293049	0.99972034
3.3050201540407406e-11	-0.0011760223	0.00088556815	0.9997207
3.407316734948787e-11	-0.0011496763	0.0007448788	0.99972105
3.5094174597077776e-11	-0.0010976779	0.00061139965	0.9997213
3.6116308689542614e-11	-0.0010219243	0.00048851775	0.9997214
3.7140720438733194e-11	-0.0009249106	0.00037865783	0.99972165
3.816605589494622e-11	-0.00080966996	0.0002832775	0.99972165
3.901749070893283e-11	-0.000702327	0.0002154007	0.9997216
4.003684846314602e-11	-0.0005622924	0.00014755107	0.9997216
4.10541250524627e-11	-0.00041239252	9.427929e-05	0.9997213
4.2071885967500804e-11	-0.00025462775	5.5573462e-05	0.99972105
4.309120001000157e-11	-9.117537e-05	3.2057764e-05	0.9997208
4.410859160077286e-11	7.483754e-05	2.487135e-05	0.9997206
4.512525230007316e-11	0.00024069058	3.525257e-05	0.9997201
4.6143256006141784e-11	0.00040342493	6.4514636e-05	0.9997197
4.71632328575636e-11	0.00055945956	0.00011369276	0.9997194
4.8012864361721296e-11	0.0006812676	0.00017006206	0.99971914
4.90314791738723e-11	0.00081412034	0.00025569057	0.9997186
5.004824556298251e-11	0.0009288525	0.0003595066	0.9997181
5.1062887521897467e-11	0.0010221396	0.00047913694	0.9997178
5.2074922147885455e-11	0.0010912309	0.00061133766	0.9997176
5.308517402017107e-11	0.0011341579	0.0007523661	0.99971753
5.409419053209394e-11	0.0011496526	0.00089801644	0.9997175
5.510200814668556e-11	0.0011372572	0.0010437088	0.9997174
5.610899225115418e-11	0.0010974265	0.001184959	0.9997172
5.7114760031368426e-11	0.0010314614	0.0013174	0.99971706
5.811992273457522e-11	0.00094157306	0.0014369898	0.99971706
5.91238019418129e-11	0.0008307343	0.001540771	0.99971724
6.012771727358777e-11	0.0007022075	0.0016260304	0.9997175
6.113365297419192e-11	0.0005596718	0.001691032	0.9997178
6.214320091314319e-11	0.00040686523	0.0017352782	0.999718
6.315731394877942e-11	0.0002475167	0.0017583356	0.9997182
6.400466780270343e-11	0.00011283899	0.001761249	0.99971825
6.502242229668381e-11	-4.731281e-05	0.0017463112	0.99971825
6.604007660147659e-11	-0.00020244815	0.0017133942	0.99971837
6.705589146852214e-11	-0.00034937097	0.0016645289	0.99971855
6.80706082869986e-11	-0.00048548874	0.0016014435	0.99971884
6.908449539247515e-11	-0.00060842524	0.0015265384	0.9997193
7.00977247192195e-11	-0.0007164336	0.001442826	0.9997198
7.111098131141935e-11	-0.00080852304	0.0013528676	0.9997202
7.212409554470778e-11	-0.0008840269	0.0012583599	0.9997205
7.313725057255995e-11	-0.00094245473	0.0011605473	0.99972075
7.414988477960402e-11	-0.0009834588	0.0010610642	0.9997208
7.516061763796624e-11	-0.0010070908	0.00096193125	0.99972093
7.60020073853428e-11	-0.0010138925	0.0008806572	0.99972093
7.70113574014099e-11	-0.0010071452	0.0007853045	0.99972093
7.80211342071426e-11	-0.0009846238	0.00069233513	0.99972093
7.903082452645378e-11	-0.0009466913	0.00060184905	0.99972117
8.004032228882316e-11	-0.0008936808	0.00051445386	0.9997214
8.105015225180319e-11	-0.0008261019	0.00043130876	0.9997217
8.205998228030187e-11	-0.0007448711	0.00035380936	0.99972194
8.3069016207881e-11	-0.00065125455	0.0002830086	0.9997222
8.407791428850074e-11	-0.0005464844	0.00021934319	0.9997223
8.508737354382959e-11	-0.0004316865	0.00016303634	0.99972224
8.609753582909524e-11	-0.00030795764	0.00011464548	0.9997222
8.710755084393127e-11	-0.00017661908	7.5379845e-05	0.9997219
8.811796745326084e-11	-3.9144503e-05	4.696703e-05	0.9997216
8.912901672046503e-11	0.00010248109	3.1356813e-05	0.99972105
9.014093289253556e-11	0.00024578982	3.0200004e-05	0.9997207
9.115171493841435e-11	0.0003876565	4.4453143e-05	0.9997202
9.216117190497348e-11	0.0005251051	7.428742e-05	0.99972
9.300176134306293e-11	0.000634259	0.0001108284	0.99971974
9.401009874008234e-11	0.00075646513	0.0001683178	0.9997195
9.501833720253038e-11	0.00086668227	0.00024020862	0.99971956
9.60267198850163e-11	0.00096242083	0.00032622195	0.99971974
9.703534418045931e-11	0.0010411151	0.0004259076	0.99972
9.804353226482277e-11	0.0011002205	0.0005382819	0.9997201
9.905165071297456e-11	0.0011373463	0.0006620059	0.9997203
1.0006043916788676e-10	0.0011503207	0.00079474354	0.99972045
1.0107061305509268e-10	0.0011374836	0.0009332943	0.99972063
1.0208279355299047e-10	0.0010977958	0.0010740786	0.99972075
1.0309741726658961e-10	0.0010309471	0.0012130107	0.9997208
1.0411470034174609e-10	0.00093756197	0.0013458104	0.9997207
1.0513496201186593e-10	0.00081910804	0.0014687708	0.9997206
1.061578721512414e-10	0.0006777343	0.0015786617	0.9997204
1.0701219837434859e-10	0.00054433907	0.0016580449	0.9997203
1.0803984904575837e-10	0.00036828383	0.0017362795	0.9997202
1.0906775775910049e-10	0.00017862102	0.0017936969	0.9997202
1.1009136889865378e-10	-1.9857362e-05	0.0018283158	0.9997202
1.111111968088302e-10	-0.000222983	0.0018384333	0.99972016
1.1212823261859751e-10	-0.0004263075	0.0018224359	0.99972034
1.1314294810884884e-10	-0.0006249442	0.0017793963	0.9997206
1.1415621813945022e-10	-0.0008139561	0.0017092453	0.99972093
1.1500011927058586e-10	-0.0009605551	0.0016304621	0.9997213
1.160128030909662e-10	-0.0011191418	0.0015125591	0.9997218
1.1702567607481783e-10	-0.0012543335	0.0013712806	0.99972236
1.180392369957007e-10	-0.0013619445	0.0012100548	0.9997228
1.190538821511144e-10	-0.00143861	0.0010332947	0.9997231
1.2007005549783588e-10	-0.001481915	0.00084577134	0.99972326
1.2108808298402192e-10	-0.0014903179	0.0006522603	0.9997235
1.2210687026723605e-10	-0.0014631507	0.00045784522	0.99972355
1.231223187624186e-10	-0.0014010186	0.00026828147	0.99972373
1.2413481882340745e-10	-0.0013055132	8.831597e-05	0.9997237
1.2514522934139314e-10	-0.0011789773	-7.792616e-05	0.99972355
1.2615417351179626e-10	-0.0010243854	-0.00022701979	0.9997235
1.2716191120975677e-10	-0.00084522535	-0.0003560996	0.99972314
1.2800111849961e-10	-0.00067991635	-0.00044652796	0.9997229
1.2900787205887454e-10	-0.00046598446	-0.00053228997	0.99972254
1.3001461098590883e-10	-0.00023949439	-0.00059096765	0.9997223
1.310217007395346e-10	-5.530119e-06	-0.00062057545	0.99972206
1.3202947172313555e-10	0.00023050055	-0.000619864	0.99972194
1.3303817946581275e-10	0.00046303583	-0.00058835075	0.99972194
1.340479267497293e-10	0.0006864386	-0.0005262165	0.9997219
1.350586943661679e-10	0.0008951019	-0.00043426562	0.9997219
1.3607063178835447e-10	0.0010835468	-0.00031383228	0.99972194
1.3708389355807772e-10	0.0012464825	-0.00016717149	0.99972194
1.3809861273595117e-10	0.0013790699	2.3207665e-06	0.99972194
1.391148224242647e-10	0.0014771833	0.00019014883	0.99972206
1.401321025690853e-10	0.0015376825	0.00039070702	0.9997223
1.4115049907795793e-10	0.0015587211	0.0005979738	0.9997225
1.4200012117724254e-10	0.0015456119	0.00077155017	0.9997226
1.430209054627595e-10	0.0014934139	0.0009759016	0.9997228
1.4404300917948659e-10	0.0014027139	0.0011707363	0.999723
1.4506649492252515e-10	0.0012757902	0.0013509269	0.99972314
1.4609144606665168e-10	0.0011157861	0.0015117164	0.99972326
1.4711791218657913e-10	0.00092671765	0.0016486492	0.99972326
1.4814415684382094e-10	0.0007138548	0.0017577386	0.99972326
1.4916729435620991e-10	0.00048352458	0.0018362255	0.9997231
1.5001781048882195e-10	0.00028256257	0.0018773823	0.9997231
1.5103566602429165e-10	3.594367e-05	0.0018973785	0.999723
1.520511426207917e-10	-0.00021112226	0.0018857889	0.99972284
1.5306487286660232e-10	-0.00045308092	0.0018437512	0.99972266
1.5407730117245386e-10	-0.0006847248	0.0017727499	0.99972266
1.550883003391046e-10	-0.0009010723	0.0016743937	0.9997226
1.560979952896688e-10	-0.0010974918	0.001550507	0.99972266
1.5710668509724033e-10	-0.0012696969	0.0014034132	0.99972266
1.58114363968555e-10	-0.0014137833	0.0012361121	0.9997228
1.5912096624007373e-10	-0.001526408	0.0010521364	0.9997228
1.6012661384144462e-10	-0.0016048967	0.00085542776	0.9997228
1.6113154252552466e-10	-0.0016473152	0.00065034436	0.99972296
1.6213595119867215e-10	-0.0016525815	0.0004415946	0.999723
1.6313977031801305e-10	-0.0016205446	0.0002339797	0.9997232
1.641427644717867e-10	-0.0015519678	3.208542e-05	0.9997235
1.6514471660976003e-10	-0.0014484127	-0.00015978813	0.9997237
1.6614574804222854e-10	-0.001312114	-0.00033750772	0.999724
1.671460772775299e-10	-0.0011459823	-0.0004969544	0.9997243
1.6814590703420408e-10	-0.00095365115	-0.0006341295	0.9997247
1.691454469134601e-10	-0.0007394565	-0.00074541237	0.999725
1.7014487192669054e-10	-0.0005083696	-0.0008277464	0.99972516
1.711443097531509e-10	-0.0002659251	-0.0008787098	0.99972534
1.721436410835539e-10	-1.8168643e-05	-0.0008966608	0.99972546
1.7314265306911154e-10	0.00022853602	-0.00088094664	0.99972546
1.7414142503598147e-10	0.00046784908	-0.00083215476	0.99972534
1.7514015972936991e-10	0.00069373316	-0.0007521095	0.99972516
1.7613907450235968e-10	0.0009006822	-0.0006436081	0.999725
1.7713837383380023e-10	0.00108387	-0.00051012135	0.9997247
1.7813828146204908e-10	0.0012392144	-0.00035548353	0.99972445
1.7913898619197806e-10	0.001363342	-0.0001837597	0.9997242
1.8014060937792207e-10	0.0014535906	6.5898894e-07	0.9997239
1.8114315202273505e-10	0.0015080833	0.00019305515	0.99972373
1.8214662925020668e-10	0.0015258013	0.00038857508	0.9997236
1.8315103804779307e-10	0.0015066026	0.0005823565	0.9997235
1.8415661058176495e-10	0.0014512202	0.00076968956	0.9997234
1.851635805585303e-10	0.0013612264	0.00094609975	0.9997234
1.860039133085797e-10	0.0012614836	0.0010816908	0.99972343
1.8701384485307297e-10	0.0011147899	0.0012271795	0.9997236
1.8802548827238546e-10	0.00094229117	0.0013504276	0.9997236
1.8903891839200664e-10	0.00074847485	0.0014485011	0.9997238
1.9005409926925422e-10	0.0005382961	0.0015193868	0.9997239
1.9107103378325612e-10	0.00031694645	0.0015620237	0.999724
1.9208948402414925e-10	8.9730784e-05	0.0015762277	0.99972415
1.931092255287314e-10	-0.00013814602	0.0015625582	0.9997242
1.941303482686993e-10	-0.00036173628	0.0015220146	0.9997243
1.9515287625722724e-10	-0.0005762747	0.0014558668	0.9997244
1.9600610796738182e-10	-0.0007448616	0.001382328	0.9997245
1.970314099845457e-10	-0.0009312516	0.0012737178	0.9997246
1.980583072270904e-10	-0.0010966343	0.0011451254	0.99972475
1.9908634111394065e-10	-0.0012375418	0.000999217	0.99972486
2.001154470689304e-10	-0.0013510847	0.0008387952	0.999725
2.0114580305517942e-10	-0.001434902	0.00066681526	0.9997251
2.0200549985575707e-10	-0.0014806836	0.0005169339	0.9997252
2.0303847552826932e-10	-0.0015055337	0.00033209895	0.9997252
2.040730182188843e-10	-0.0014967436	0.00014526368	0.99972534
2.0510618643826948e-10	-0.0014542516	-3.8980008e-05	0.99972546
2.0613361509317625e-10	-0.0013793139	-0.0002155199	0.99972546
2.0715642829328145e-10	-0.0012739475	-0.00038031672	0.99972546
2.0800598120097052e-10	-0.0011648291	-0.00050601864	0.9997255
2.0902277772515325e-10	-0.0010111311	-0.0006401467	0.99972546
2.1003696630973233e-10	-0.0008361766	-0.00075349904	0.99972546
2.1104907217998382e-10	-0.00064407074	-0.0008439369	0.9997254
2.1205962037339936e-10	-0.00043917418	-0.000909874	0.99972534
2.1306901947453023e-10	-0.00022603091	-0.0009502201	0.9997253
2.140775941475763e-10	-9.295664e-06	-0.000964335	0.9997251
2.1508557505829875e-10	0.0002063043	-0.00095196866	0.9997251
2.160931540125823e-10	0.0004159996	-0.00091328524	0.99972504
2.1710049469601713e-10	0.00061504234	-0.00084902	0.999725
2.1810772181462782e-10	0.00079884054	-0.000760601	0.999725
2.1911493595405034e-10	0.0009631155	-0.0006500893	0.99972504
2.2012220382559617e-10	0.0011040294	-0.00052006723	0.99972504
2.2112958431566188e-10	0.001218273	-0.00037347412	0.999725
2.2213712109467672e-10	0.0013031035	-0.000213552	0.999725
2.2314473415613184e-10	0.0013563788	-4.391527e-05	0.99972504
2.2415243583494157e-10	0.0013766485	0.00013142108	0.99972504
2.251602987720346e-10	0.0013632181	0.00030812263	0.9997251
2.2600037227946287e-10	0.001326329	0.0004531331	0.9997251
2.2700876820423882e-10	0.0012519703	0.0006204085	0.9997252
2.2801757314635084e-10	0.0011463912	0.0007758975	0.99972534
2.2902687501970403e-10	0.0010121497	0.0009150729	0.99972534
2.3003675889442855e-10	0.0008526786	0.0010337743	0.99972546
2.310472972788923e-10	0.00067220826	0.0011284809	0.99972546
2.3205856964546717e-10	0.00047560065	0.0011965819	0.9997256
2.3307064946053654e-10	0.00026810687	0.0012365275	0.99972564
2.340836256059698e-10	5.5117802e-05	0.0012477384	0.9997256
2.350975772477445e-10	-0.00015800926	0.0012304292	0.9997257
2.361125795442224e-10	-0.00036607098	0.0011854877	0.9997257
2.371287119394737e-10	-0.0005641121	0.0011144137	0.9997257
2.3814603385478836e-10	-0.00074750354	0.0010192833	0.9997257
2.391646042800603e-10	-0.00091202836	0.0009027257	0.9997257
2.4001438409870124e-10	-0.0010320258	0.000791491	0.9997256
2.4103531721392434e-10	-0.0011527743	0.00064416695	0.9997256
2.420576076919479e-10	-0.0012458282	0.00048534156	0.9997256
2.4308130890763857e-10	-0.0013094232	0.0003189411	0.99972546
2.441064650124619e-10	-0.0013425461	0.00014894104	0.99972546
2.4513311063504373e-10	-0.0013449524	-2.066803e-05	0.99972546
2.46161292813649e-10	-0.001317163	-0.00018600607	0.99972546
2.47019301599802e-10	-0.0012718065	-0.00031792498	0.99972546
2.4805035430133587e-10	-0.0011922928	-0.0004663973	0.9997255
2.490828624672554e-10	-0.0010875843	-0.00060146046	0.9997256
2.5011008463469713e-10	-0.00096128776	-0.00071992824	0.9997256
2.5112958665258646e-10	-0.00081721187	-0.00081981084	0.99972564
2.5214298591686336e-10	-0.0006588551	-0.0008999295	0.9997257
2.5315155040645647e-10	-0.0004898505	-0.0009592633	0.99972576
2.541563179995077e-10	-0.0003139865	-0.0009970007	0.9997258
2.551581303084589e-10	-0.00013518831	-0.0010126925	0.9997258
2.5615768433691966e-10	4.256666e-05	-0.0010064163	0.9997258
2.5715554061485075e-10	0.00021537802	-0.0009788875	0.9997259
2.581521789161795e-10	0.00037956567	-0.0009314089	0.99972576
2.5914797639649326e-10	0.0005317593	-0.0008657436	0.9997257
2.6014325676224343e-10	0.0006689595	-0.00078402326	0.9997257
2.6113818528614154e-10	0.0007885689	-0.000688693	0.9997256
2.62132965751739e-10	0.00088846276	-0.0005824285	0.9997255
2.631278162477068e-10	0.0009670144	-0.00046804667	0.99972546
2.641229186993598e-10	0.0010231119	-0.00034841156	0.99972546
2.651184337589539e-10	0.0010561611	-0.00022632504	0.9997254
2.661144888223714e-10	0.0010660698	-0.0001044569	0.99972534
2.6711120555283966e-10	0.0010532174	1.4708996e-05	0.9997254
2.681086629426792e-10	0.0010184122	0.00012893057	0.99972534
2.69106950532388e-10	0.0009628176	0.00023626852	0.9997254
2.701061199301699e-10	0.00088787294	0.00033504437	0.9997254
2.7110622510927505e-10	0.0007952418	0.00042374706	0.99972546
2.7210730203156186e-10	0.0006868077	0.0005009379	0.99972546
2.731093877922364e-10	0.0005646875	0.00056525803	0.99972564
2.741125187134849e-10	0.00043124447	0.00061548565	0.9997257
2.751167136250704e-10	0.00028907394	0.00065065286	0.9997258
2.7612200132643316e-10	0.00014094028	0.0006701517	0.9997258
2.771283872925162e-10	-1.0305383e-05	0.0006737428	0.9997258
2.7813588338040746e-10	-0.00016180781	0.0006614761	0.99972594
2.791444792123433e-10	-0.00031075338	0.0006336107	0.99972594
2.801541709433432e-10	-0.0004544088	0.00059057906	0.99972606
2.8116497375178846e-10	-0.0005901474	0.0005329499	0.99972606
2.820081504426929e-10	-0.00069539656	0.00047426604	0.99972606
2.830209677012022e-10	-0.00081016205	0.00039171745	0.99972606
2.84034865857783e-10	-0.0009101499	0.00029679394	0.99972606
2.850498251069404e-10	-0.0009931494	0.00019062089	0.999726
2.8606580166475437e-10	-0.0010571209	7.4634074e-05	0.999726
2.8708276415042065e-10	-0.0011002821	-4.9357415e-05	0.9997259
2.881006630508177e-10	-0.0011212085	-0.00017914629	0.9997258
2.8911946166438955e-10	-0.001118933	-0.00031218052	0.9997257
2.9013911839717647e-10	-0.0010930133	-0.0004456744	0.99972564
2.9115956383368064e-10	-0.0010435571	-0.00057670975	0.9997256
2.9201035448781384e-10	-0.0009848324	-0.0006818528	0.9997255
2.9303168844513997e-10	-0.0008943753	-0.00080050423	0.99972546
2.9405333496989543e-10	-0.0007837588	-0.0009080334	0.99972546
2.9507364137010715e-10	-0.00065550156	-0.0010013361	0.99972534
2.96092093342183e-10	-0.00051260856	-0.0010777826	0.9997253
2.9710905754753157e-10	-0.0003584372	-0.0011353197	0.9997253
2.9812485177477887e-10	-0.00019669274	-0.0011724753	0.9997253
2.991397246946932e-10	-3.13095e-05	-0.0011884345	0.9997252
3.0015377517741536e-10	0.00013367599	-0.0011830501	0.9997252
3.0116692991975586e-10	0.0002942701	-0.0011568299	0.99972516
3.0201025465541126e-10	0.00042196445	-0.0011198182	0.9997252
3.0302102683507477e-10	0.0005647938	-0.0010584998	0.9997251
3.0403069802922456e-10	0.0006933148	-0.0009804635	0.999725
3.0503944991758727e-10	0.0008047593	-0.00088781165	0.999725
3.060475227246174e-10	0.00089677767	-0.0007828517	0.99972486
3.0705516611696813e-10	0.00096743816	-0.0006680274	0.99972486
3.0806258261933915e-10	0.0010152245	-0.00054588506	0.9997249
3.090698908927241e-10	0.0010390513	-0.0004190979	0.9997249
3.100771763094405e-10	0.0010383064	-0.00029050017	0.9997249
3.110845441354034e-10	0.0010129106	-0.00016310882	0.99972504
3.1209209376354684e-10	0.0009633677	-4.0041446e-05	0.99972504
3.1309989964468695e-10	0.0008907796	7.561684e-05	0.9997251
3.141080344499594e-10	0.00079681893	0.00018095683	0.9997252
3.151165587284555e-10	0.00068367063	0.00027334213	0.9997252
3.1612552068216584e-10	0.00055396	0.0003505001	0.9997252
3.1713474532701175e-10	0.0004107037	0.00041055155	0.99972534
3.1814409647523655e-10	0.0002572028	0.00045205068	0.99972546
3.191536488045493e-10	9.694141e-05	0.00047397517	0.9997256
3.201634527601282e-10	-6.644216e-05	0.0004756999	0.9997256
3.2100506504168835e-10	-0.00020227114	0.00046153832	0.9997256
3.220149167898252e-10	-0.00036158913	0.0004260006	0.99972564
3.230247631767663e-10	-0.000513417	0.00037085105	0.9997257
3.2403466838743723e-10	-0.00065422384	0.00029723693	0.99972576
3.2504442199962097e-10	-0.0007807189	0.00020681668	0.99972576
3.2605399936215566e-10	-0.0008900111	0.00010163832	0.9997257
3.2706352647075933e-10	-0.0009796477	-1.5973568e-05	0.99972576
3.2807303495669654e-10	-0.0010476162	-0.0001434555	0.9997257
3.290823153164918e-10	-0.001092374	-0.00027801085	0.9997257
3.3009148586724804e-10	-0.0011129122	-0.00041671944	0.9997256
3.3110066946153733e-10	-0.0011087513	-0.00055655383	0.9997256
3.3210990144296346e-10	-0.0010799619	-0.00069442985	0.99972546
3.331190080996294e-10	-0.0010271914	-0.00082727143	0.99972534
3.3412808718139006e-10	-0.0009516334	-0.00095216226	0.9997253
3.351372636983766e-10	-0.000854993	-0.0010663476	0.9997252
3.36146621363486e-10	-0.0007394561	-0.0011672612	0.9997251
3.3715602842584205e-10	-0.0006076844	-0.0012525225	0.999725
3.381654439356191e-10	-0.0004627462	-0.0013200226	0.99972486
3.390067038666036e-10	-0.0003343585	-0.0013614144	0.9997246
3.400163839881611e-10	-0.0001743646	-0.0013920326	0.9997244
3.4102630430806444e-10	-1.1614494e-05	-0.0014009567	0.99972427
3.4203625933664843e-10	0.00014976221	-0.0013877497	0.99972385
3.430462627573966e-10	0.00030560984	-0.0013526307	0.9997236
3.440564108948245e-10	0.00045185833	-0.001296545	0.99972343
3.450667741081946e-10	0.0005846678	-0.0012212029	0.99972314
3.4607736192371805e-10	0.00070058956	-0.0011290183	0.999723
3.470879720590473e-10	0.0007967005	-0.0010229988	0.9997229
3.480986995054283e-10	0.00087075954	-0.0009065185	0.99972296
3.491096396637653e-10	0.00092121685	-0.0007831545	0.99972296
3.5012086487855924e-10	0.00094722	-0.00065654184	0.999723
3.5113240483157374e-10	0.00094859774	-0.0005302553	0.99972326
3.521440896255641e-10	0.0009258341	-0.0004077573	0.9997235
3.5315597663163264e-10	0.0008800286	-0.00029226922	0.9997236
3.541681555600276e-10	0.0008128434	-0.00018674326	0.999724
3.550119163077333e-10	0.00074208085	-0.0001083045	0.99972427
3.560248189115718e-10	0.0006416788	-2.7481556e-05	0.99972457
3.570379863115041e-10	0.0005271826	3.7199974e-05	0.99972486
3.5805134952726973e-10	0.00040180405	8.452463e-05	0.99972516
3.590649914335666e-10	0.00026889823	0.00011379003	0.99972546
3.600789598824818e-10	0.00013188717	0.00012477016	0.99972564
3.610929724858027e-10	-5.790979e-06	0.00011771202	0.9997258
3.621069879108312e-10	-0.00014084956	9.331798e-05	0.99972594
3.631210255575537e-10	-0.00027020872	5.2695275e-05	0.99972594
3.6413475317363034e-10	-0.0003910099	-2.679348e-06	0.99972594
3.6514819667383197e-10	-0.00050075696	-7.105684e-05	0.99972594
3.661611929874938e-10	-0.00059728324	-0.00015045976	0.99972576
3.6700488917955263e-10	-0.0006663259	-0.00022350263	0.9997257
3.6801688304853035e-10	-0.0007343087	-0.00031745626	0.9997254
3.690282737973176e-10	-0.00078514003	-0.0004160881	0.9997252
3.700389632598341e-10	-0.0008182651	-0.0005170736	0.99972486
3.7104912617191067e-10	-0.0008335688	-0.0006181941	0.9997246
3.7205888928818376e-10	-0.00083132845	-0.00071736285	0.9997243
3.7306826858898733e-10	-0.000812181	-0.00081266306	0.99972403
3.740771732407132e-10	-0.0007770834	-0.00090238906	0.9997237
3.750857407984033e-10	-0.00072724716	-0.0009850841	0.9997234
3.760941062684493e-10	-0.00066409225	-0.0010594887	0.99972314
3.771023712281256e-10	-0.0005892242	-0.0011244951	0.9997229
3.781106480937022e-10	-0.00050442375	-0.0011791191	0.99972266
3.7911901312714247e-10	-0.00041164787	-0.0012225065	0.99972254
3.801275406699306e-10	-0.0003130132	-0.0012539873	0.9997225
3.811362907039527e-10	-0.00021076003	-0.0012731543	0.9997224
3.8214529841699496e-10	-0.00010718951	-0.0012799368	0.9997224
3.8315456789099023e-10	-4.581347e-06	-0.0012746382	0.9997224
3.841640817152504e-10	9.489126e-05	-0.0012579112	0.9997225
3.850055789144473e-10	0.0001739488	-0.0012359123	0.99972254
3.860157082318081e-10	0.00026266364	-0.0012008271	0.9997226
3.870262495541181e-10	0.00034318984	-0.0011574721	0.99972266
3.880372399421756e-10	0.00041420822	-0.0011072207	0.99972266
3.8904872262604507e-10	0.0004746613	-0.0010514846	0.9997227
3.900607148213158e-10	0.0005237484	-0.0009916582	0.9997228
3.9107324466333047e-10	0.00056091597	-0.0009290657	0.9997228
3.9208633507023745e-10	0.0005858382	-0.0008649454	0.9997229
3.931000133913644e-10	0.0005983985	-0.0008004365	0.99972296
3.9411430535951905e-10	0.00059867033	-0.00073659513	0.999723
3.9512921032960165e-10	0.00058689964	-0.00067440607	0.99972326
3.96144745500296e-10	0.00056348665	-0.00061478995	0.99972343
3.9716092316227634e-10	0.0005289727	-0.00055863045	0.9997236
3.980082279965048e-10	0.00049221714	-0.0005151024	0.99972373
3.9902559329286014e-10	0.00043921976	-0.00046755315	0.9997239
4.0004362076913915e-10	0.00037742904	-0.0004259429	0.99972415
4.010622816617036e-10	0.00030796317	-0.00039113045	0.9997243
4.0208146750825283e-10	0.00023211354	-0.00036392736	0.9997245
4.0310118609118155e-10	0.0001513218	-0.00034504844	0.9997245
4.041214475756306e-10	6.716362e-05	-0.00033507537	0.9997245
4.051422566790657e-10	-1.8684454e-05	-0.0003344283	0.9997245
4.0616361319863104e-10	-0.00010447971	-0.00034335852	0.9997245
4.07015161943035e-10	-0.0001746535	-0.00035818483	0.9997243
4.0803752579442106e-10	-0.000255726	-0.0003847642	0.99972415
4.0906040373645915e-10	-0.00033169688	-0.00042065	0.9997239
4.100834814656305e-10	-0.0004008216	-0.0004652729	0.99972373
4.1110561482765573e-10	-0.00046143256	-0.00051769067	0.99972343
4.121255635773295e-10	-0.0005120901	-0.0005766168	0.99972326
4.1314331045448275e-10	-0.000551713	-0.00064056966	0.9997229
4.141590974355072e-10	-0.0005795436	-0.00070793915	0.99972266
4.1500431141704056e-10	-0.00059340725	-0.0007654939	0.9997225
4.160170158266312e-10	-0.0005987321	-0.0008348217	0.9997223
4.170281218323114e-10	-0.00059187907	-0.00090295076	0.9997222
4.1803790531956315e-10	-0.0005732882	-0.0009684524	0.99972206
4.1904659743068615e-10	-0.00054363726	-0.0010300498	0.999722
4.2005427891254887e-10	-0.0005038105	-0.0010866189	0.99972206
4.2106097338934947e-10	-0.00045486528	-0.0011371922	0.99972206
4.2206688877702957e-10	-0.00039799584	-0.0011809587	0.9997221
4.2307221826655926e-10	-0.000334517	-0.001217249	0.99972224
4.2407711616850735e-10	-0.00026584894	-0.001245543	0.9997223
4.2508173407472054e-10	-0.00019349209	-0.001265481	0.9997223
4.2608619440209863e-10	-0.00011900167	-0.0012768817	0.9997224
4.270906053252388e-10	-4.3950273e-05	-0.0012797494	0.9997224
4.2809506673416827e-10	3.0113682e-05	-0.0012743077	0.9997223
4.2909964135435424e-10	0.000101708625	-0.0012609873	0.99972224
4.3010431157672646e-10	0.00016946065	-0.0012404236	0.99972206
4.3110915577017007e-10	0.00023215156	-0.0012134218	0.999722
4.321142623110384e-10	0.00028873788	-0.0011809097	0.9997219
4.3311971325577415e-10	0.00033836113	-0.0011438794	0.9997218
4.3412556040401243e-10	0.00038034865	-0.0011033416	0.99972165
4.351318703186494e-10	0.0004142115	-0.0010602941	0.9997216
4.361386846293784e-10	0.00043964005	-0.0010157013	0.99972165
4.371460563165604e-10	0.0004565019	-0.00097047375	0.9997217
4.38154016076044e-10	0.00046483052	-0.0009254279	0.99972177
4.3916259120683627e-10	0.0004648024	-0.00088124897	0.9997218
4.4000356636381066e-10	0.0004585961	-0.00084548094	0.99972194
4.410133536670323e-10	0.0004440245	-0.000804152	0.999722
4.4202382721253233e-10	0.00042203188	-0.00076482585	0.9997222
4.4303500727273295e-10	0.00039299906	-0.0007277298	0.9997223
4.4404689947047545e-10	0.0003573131	-0.0006930909	0.99972254
4.4505951981543796e-10	0.00031538057	-0.000661191	0.9997227
4.4607288254005597e-10	0.00026765245	-0.0006324024	0.99972284
4.4708697849414147e-10	0.00021465763	-0.00060719345	0.999723
4.4810181798193426e-10	0.00015702606	-0.0005861068	0.99972314
4.491173936850043e-10	9.550774e-05	-0.00056973076	0.99972326
4.501336824299686e-10	3.0976975e-05	-0.0005586476	0.9997233
4.511505738544264e-10	-3.556908e-05	-0.0005534005	0.9997234
4.521680422467321e-10	-0.00010303561	-0.0005544539	0.9997235
4.530163769436909e-10	-0.00015911373	-0.00056041096	0.9997235
4.540349094311349e-10	-0.00022516206	-0.0005738826	0.9997236
4.5505401114854123e-10	-0.0002886363	-0.0005943961	0.9997236
4.560736611129456e-10	-0.00034822014	-0.00062197924	0.9997235
4.570938488269462e-10	-0.00040258857	-0.0006565118	0.99972343
4.581144617236539e-10	-0.00045043248	-0.00069770386	0.99972326
4.5913527337663905e-10	-0.0004905	-0.0007450585	0.99972314
4.601562804842527e-10	-0.00052165746	-0.00079787394	0.9997229
4.610070992447726e-10	-0.0005400978	-0.00084540463	0.9997226
4.620278070045179e-10	-0.00055249943	-0.0009057169	0.99972224
4.6304779168541984e-10	-0.00055373897	-0.0009684176	0.99972194
4.640665705100008e-10	-0.0005434878	-0.0010321174	0.9997214
4.650838245592487e-10	-0.00052170287	-0.0010953331	0.99972105
4.660994035656384e-10	-0.0004886344	-0.001156539	0.99972075
4.67113432758025e-10	-0.00044481683	-0.0012142367	0.99972045
4.681260760795385e-10	-0.00039105903	-0.0012670121	0.9997202
4.691373057454297e-10	-0.0003284331	-0.0013135906	0.99972
4.701473506105119e-10	-0.0002582097	-0.0013529067	0.99971986
4.711564283454256e-10	-0.00018182346	-0.0013841143	0.99971974
4.721647235084846e-10	-0.0001008276	-0.0014065766	0.99971974
4.730044798037353e-10	-3.0985822e-05	-0.0014182935	0.9997198
4.740117280736414e-10	5.4191365e-05	-0.0014237061	0.99972
4.750185767849438e-10	0.0001392579	-0.0014195461	0.9997201
4.760250185436678e-10	0.00022250485	-0.0014058013	0.9997203
4.770311536172531e-10	0.00030224325	-0.0013825936	0.9997206
4.780370968719252e-10	0.0003768138	-0.0013501892	0.9997208
4.790429376824558e-10	0.00044460528	-0.0013090153	0.99972117
4.800487636056859e-10	0.00050408556	-0.0012596722	0.99972165
4.810546327360392e-10	0.0005538333	-0.0012029328	0.99972206
4.820606034882828e-10	0.0005925756	-0.0011397481	0.9997224
4.830667202554901e-10	0.00061922	-0.0010712309	0.9997227
4.840730288967911e-10	0.00063288596	-0.0009986539	0.999723
4.85079568418086e-10	0.0006329338	-0.0009234385	0.9997234
4.860863632963293e-10	0.0006189916	-0.0008471446	0.9997236
4.870934486043832e-10	0.00059097755	-0.00077144004	0.9997238
4.881008068592165e-10	0.0005491189	-0.0006980791	0.99972385
4.89108365310029e-10	0.00049397117	-0.0006288695	0.99972385
4.901161397664376e-10	0.00042642152	-0.00056563044	0.99972373
4.911241427595097e-10	0.00034769846	-0.0005101509	0.9997237
4.921323986089374e-10	0.00025936763	-0.00046412324	0.99972343
4.931409117684808e-10	0.0001633172	-0.00042907524	0.99972326
4.941497021281398e-10	6.171297e-05	-0.00040626907	0.999723
4.951587766213189e-10	-4.3056778e-05	-0.00039663792	0.99972284