# t (s)	mx ()	my ()	mz ()
0	0.07071069	0.07071069	-0.02
1.0414439240441135e-12	0.0730509	0.07299084	-0.01876039
2.067195419818302e-12	0.075004406	0.073545545	-0.01714104
3.1005087067556072e-12	0.07897382	0.07568581	-0.015936684
4.025851215940235e-12	0.084269464	0.078977846	-0.014831016
5.037881264030735e-12	0.09138138	0.083565265	-0.013496359
6.054406606974375e-12	0.099528424	0.08896809	-0.011970999
7.087432411315214e-12	0.108570285	0.095169745	-0.010176365
8.030989093923246e-12	0.117280215	0.10144769	-0.0083014965
9.090455206574413e-12	0.12725013	0.108867906	-0.005955858
1.0059787909050415e-11	0.13628404	0.115213364	-0.0033748664
1.1047511879203109e-11	0.1453074	0.12233325	-0.00083303597
1.2051223275080284e-11	0.15419994	0.13048714	0.0024539274
1.3073549849131004e-11	0.16262935	0.13839537	0.005902972
1.4078974958836245e-11	0.17012353	0.14483827	0.009313366
1.505999421300897e-11	0.17647086	0.15034173	0.013156581
1.6024765437796346e-11	0.18178879	0.15538386	0.017058974
1.7000043406180098e-11	0.18625076	0.16015618	0.02104907
1.809463246527771e-11	0.19018327	0.16509217	0.025652496
1.9087635681172023e-11	0.19278511	0.1690701	0.02997239
2.0083098375223406e-11	0.19453415	0.17267628	0.034190148
2.1090391869112796e-11	0.1947284	0.17514716	0.03863872
2.2112545905903786e-11	0.19441399	0.17763565	0.042755134
2.3037621516834653e-11	0.19253828	0.17777131	0.04683432
2.410075067542474e-11	0.18965632	0.1773082	0.05068875
2.5066318117997955e-11	0.18591034	0.17660941	0.054367453
2.6045610204328855e-11	0.18029168	0.17456101	0.05767087
2.7054856570565335e-11	0.17382658	0.17207004	0.06064945
2.8080626510823214e-11	0.16666041	0.16814223	0.06362903
2.9000189236812558e-11	0.15985751	0.16308749	0.06609174
3.0060343759497944e-11	0.15169454	0.15600857	0.06851374
3.1121960324180805e-11	0.14306885	0.14812982	0.07080687
3.204904299220337e-11	0.13530149	0.1409929	0.072568305
3.310501987861825e-11	0.12639655	0.13269845	0.07466062
3.403154944069226e-11	0.118431196	0.12509884	0.076100625
3.5086366788642385e-11	0.10972917	0.116155036	0.0779293
3.602530144274809e-11	0.10251006	0.1082575	0.07964395
3.710206349903446e-11	0.09548132	0.099569	0.08134142
3.803919856335317e-11	0.0903894	0.09252545	0.08296831
3.9132992066703405e-11	0.085517295	0.084733084	0.08475558
4.00984618750521e-11	0.0822822	0.0782725	0.08638397
4.106329767718344e-11	0.08025075	0.07282173	0.08812088
4.2046865615856974e-11	0.07945873	0.067997225	0.09001295
4.306587001932479e-11	0.080488175	0.064505465	0.091846205
4.409791711244944e-11	0.08299572	0.061861876	0.093783945
4.513219069033879e-11	0.08720668	0.061286524	0.0957762
4.6029415660214445e-11	0.091642685	0.0615736	0.09783449
4.708801325071771e-11	0.0982552	0.063949354	0.10014417
4.813961032438478e-11	0.10581021	0.06735756	0.10280146
4.90567176168099e-11	0.1132065	0.071252316	0.10505158
5.010954107075503e-11	0.12241604	0.077616334	0.10776115
5.101482012950047e-11	0.13035029	0.08395495	0.11033885
5.2107779163095465e-11	0.13997291	0.09270853	0.11351511
5.305958680390434e-11	0.14825751	0.10179099	0.11633268
5.401656580807775e-11	0.156203	0.111471415	0.11947456
5.5136883452931126e-11	0.16478412	0.12273697	0.12302221
5.6109872998432536e-11	0.1715907	0.13243133	0.12620407
5.7098562186137195e-11	0.17770925	0.14270651	0.12944616
5.810071075539439e-11	0.18293418	0.15285672	0.13290821
5.910283594771138e-11	0.18718393	0.16220377	0.1363357
6.012688903377085e-11	0.1904014	0.17055313	0.13969879
6.100168552092778e-11	0.19210699	0.17655167	0.14269367
6.207053634227614e-11	0.1932261	0.18278368	0.14632522
6.314166678566914e-11	0.19313632	0.18721095	0.14989768
6.405562281021771e-11	0.19220887	0.18941087	0.15295626
6.516645967412069e-11	0.18983832	0.18965149	0.15641718
6.611526891360406e-11	0.18676303	0.1880217	0.15939792
6.707150728446473e-11	0.18259768	0.18445484	0.16237488
6.802069570623887e-11	0.17779529	0.17987323	0.16516963
6.913764548506618e-11	0.17102776	0.173107	0.1683088
7.008125191050494e-11	0.16468395	0.16654474	0.17068307
7.105331750223487e-11	0.15779424	0.1587683	0.1731499
7.202665096887126e-11	0.1505246	0.14998081	0.17541093
7.300847853065106e-11	0.14305447	0.14070109	0.17757685
7.402184986219185e-11	0.1352651	0.13088489	0.17971191
7.504015995053962e-11	0.12749611	0.12106722	0.18170035
7.607038166539164e-11	0.11974618	0.11139841	0.18366972
7.709627775072702e-11	0.11244406	0.10223135	0.18570608
7.812749202692987e-11	0.10560692	0.09395993	0.18770431
7.91659774676011e-11	0.09939357	0.086618714	0.18990915
8.020589286616748e-11	0.09348619	0.080147766	0.19221132
8.104129655412448e-11	0.08923697	0.07575888	0.19420773
8.211247835214677e-11	0.08474429	0.07131575	0.19684237
8.319643328609372e-11	0.08145689	0.06831851	0.1996588
8.410100031845789e-11	0.07987836	0.06696721	0.20209756
8.500572227238007e-11	0.07928148	0.0666609	0.2045843
8.613461464809664e-11	0.080146305	0.06771351	0.20765151
8.705830139395132e-11	0.08224364	0.06969719	0.21016094
8.81990216602144e-11	0.08662204	0.07364503	0.21302134
8.913177903938257e-11	0.091674425	0.07789333	0.2153725
9.00465437982096e-11	0.09785812	0.08259506	0.21760137
9.116767592092234e-11	0.107002266	0.08912233	0.2202352
9.207352077196034e-11	0.11545271	0.09457757	0.22230473
9.3157405541983e-11	0.12666053	0.10134242	0.22468485
9.401221346800054e-11	0.13603671	0.10701864	0.22661792
9.506319730066853e-11	0.1479363	0.11444029	0.22903591
9.611434671564782e-11	0.1600663	0.1218068	0.23156458
9.71466942162625e-11	0.17173176	0.12845017	0.23415114
9.818799891116724e-11	0.18288693	0.13496952	0.2368058
9.900768244417328e-11	0.19083676	0.14005621	0.23903528
1.0003248589465404e-10	0.19940934	0.1459882	0.24194612
1.0105477480477197e-10	0.20622922	0.15127134	0.24488176
1.0206226567463909e-10	0.21132681	0.15573993	0.24793026
1.030628692842391e-10	0.21469432	0.15947494	0.2509882
1.0405600013288866e-10	0.21615455	0.16244277	0.25404856
1.0504494222181767e-10	0.21555471	0.16450848	0.25705618
1.0601309817170986e-10	0.21292917	0.1655324	0.26002923
1.0715428622300219e-10	0.20753509	0.16563255	0.26354265
1.0809031275799681e-10	0.20138282	0.16492002	0.2663752
1.0902167069936584e-10	0.19401535	0.16345634	0.26913103
1.1013449698533123e-10	0.18384531	0.16039011	0.27239951
1.1105692708296697e-10	0.17446151	0.15686472	0.27502462
1.1215289519696355e-10	0.16239917	0.151835	0.2781682
1.1305941248850354e-10	0.15182936	0.14716418	0.2807107
1.1414838971454331e-10	0.13876726	0.14116763	0.28374025
1.150599331687835e-10	0.12789157	0.13582689	0.28626624
1.161606170747793e-10	0.11522989	0.12902611	0.28930658
1.170866484052447e-10	0.10510423	0.12297499	0.2918819
1.180214334515869e-10	0.09570797	0.11682208	0.29444697
1.191441913690251e-10	0.0858058	0.10982319	0.29745275
1.2007536547517746e-10	0.078867406	0.10450294	0.29990694
1.210105757685659e-10	0.073172495	0.09975282	0.30232045
1.2213748134827198e-10	0.0682309	0.094857104	0.30518395
1.230742739890302e-10	0.06581448	0.091467634	0.3074625
1.240164357378686e-10	0.0650442	0.088751785	0.3096687
1.2515165845128166e-10	0.06634802	0.08625132	0.31230542
1.2609043964852894e-10	0.06925167	0.0848443	0.31439143
1.2702441978185563e-10	0.07376933	0.08406446	0.31638387
1.2813702732097248e-10	0.0811635	0.083991535	0.31868976
1.2905806372308478e-10	0.08874745	0.08463274	0.32056874
1.3015932206543487e-10	0.09929407	0.08605104	0.32274976
1.3107434163879492e-10	0.10903789	0.08763443	0.32450646
1.3217013366344847e-10	0.12154671	0.090073764	0.32662222
1.3308210913843986e-10	0.13250123	0.092564486	0.32844016
1.3417812497632e-10	0.14616185	0.09593093	0.33068353
1.3509242803092753e-10	0.15771692	0.0987884	0.33266193
1.3600778260158086e-10	0.16913833	0.10175813	0.33469003
1.3710297594200614e-10	0.18211916	0.10555203	0.33724922
1.3801025590089507e-10	0.19191253	0.10881642	0.33950883
1.3909906965424423e-10	0.20232645	0.11287429	0.3423811
1.4000680487662583e-10	0.20973101	0.11635412	0.34489423
1.4109405044515947e-10	0.21674903	0.120566495	0.3480318
1.4217777919706318e-10	0.22139595	0.124715015	0.35132545
1.43082914461871e-10	0.22338302	0.12815994	0.3541908
1.441742572132412e-10	0.22347595	0.13239175	0.35772467
1.4508696656061533e-10	0.22167912	0.13592929	0.36075824
1.4600508154177132e-10	0.21821783	0.1393331	0.36383194
1.4711486703704794e-10	0.21189648	0.14319205	0.36757925
1.4804227360772e-10	0.20488322	0.14616042	0.37072697
1.4915263331591916e-10	0.19468915	0.14933646	0.37445182
1.5007710159457496e-10	0.18502717	0.15149677	0.37750685
1.5100412992336812e-10	0.17449509	0.15303607	0.38051265
1.5212111785851205e-10	0.16104461	0.15405813	0.38401142
1.5305133945195586e-10	0.1494859	0.15438147	0.386812
1.5415551039340624e-10	0.13563465	0.15417618	0.38999924
1.550690169650448e-10	0.12437599	0.15351705	0.3925107
1.5615945766640443e-10	0.111552075	0.15202074	0.39532527
1.5706659271225284e-10	0.10174077	0.15009047	0.3975265
1.5815547579893607e-10	0.09134314	0.14690948	0.40005305
1.5906365068276443e-10	0.08400738	0.14364357	0.40205684
1.601567473551752e-10	0.07695496	0.1391193	0.40440848
1.6106958386548312e-10	0.07265204	0.13486432	0.40634507
1.621659386352334e-10	0.06949907	0.12915525	0.40867272
1.6307843531713055e-10	0.068609506	0.123942465	0.41066456
1.6417115017689218e-10	0.06968457	0.11730833	0.41313508
1.650813905308721e-10	0.072351895	0.11158668	0.4152688
1.6617746756849754e-10	0.07756061	0.10460461	0.41792914
1.6709425777515032e-10	0.08340898	0.09888524	0.4202245
1.6801567308521067e-10	0.09045026	0.09339009	0.42260545
1.6912629179419536e-10	0.10034215	0.08725894	0.4255171
1.7005337842822501e-10	0.109643035	0.082655884	0.4279671
1.7116884523059574e-10	0.12176782	0.0778399	0.43090126
1.7210233144866707e-10	0.1323801	0.07455868	0.43331066
1.7304122166573962e-10	0.14314477	0.07206568	0.43568566
1.7417457042282306e-10	0.15585543	0.070247054	0.43846443
1.7511614245100091e-10	0.16584766	0.06974394	0.44067693
1.7604892898356343e-10	0.17498368	0.07014787	0.44281125
1.7715997051474884e-10	0.18468201	0.071848005	0.44529644
1.7808107239873675e-10	0.19166388	0.07423874	0.44733176
1.7900041162494699e-10	0.19761822	0.077439494	0.4493626
1.800978197074659e-10	0.20327291	0.08228188	0.45183483
1.810020985741805e-10	0.20664117	0.08703897	0.4539481
1.82080072005797e-10	0.20911168	0.0934316	0.4565799
1.8315571707128962e-10	0.2098826	0.10033866	0.45937166
1.8405189860574227e-10	0.20921998	0.106450394	0.4618207
1.8512746557267483e-10	0.20685953	0.114266895	0.46489283
1.8602468627728666e-10	0.20363043	0.12111325	0.46756735
1.8710482065672084e-10	0.19837189	0.12951423	0.47089833
1.8800912796237615e-10	0.19299708	0.13643518	0.47376102
1.8910040207658672e-10	0.18556862	0.14439239	0.47727278
1.9001437907946248e-10	0.17871016	0.15063043	0.4802244
1.911158067115477e-10	0.16985516	0.15747696	0.4837621
1.9203891816990716e-10	0.16208622	0.16247739	0.48667645
1.9315331597318446e-10	0.15250528	0.16740437	0.49011642
1.940815640073487e-10	0.1445669	0.17045552	0.4928848
1.9500495107097904e-10	0.13689204	0.17244303	0.495538
1.961079622771724e-10	0.12821014	0.17329302	0.49859172
1.9702261235538566e-10	0.121585034	0.1725949	0.5010401
1.9811602611228168e-10	0.1145892	0.16998385	0.50388265
1.990238589181039e-10	0.10966631	0.16635461	0.50619584
2.0010938433180877e-10	0.10490239	0.16041201	0.50891954
2.0101046900764604e-10	0.101867385	0.15433529	0.5111745
2.0208547624543488e-10	0.09931136	0.14597233	0.5138793
2.0315497846836384e-10	0.09793949	0.13671476	0.51659614
2.040441355341394e-10	0.09771438	0.12849368	0.5188763
2.0511077130245266e-10	0.098535635	0.11823918	0.52163446
2.0600077579223006e-10	0.10006998	0.10955588	0.52395296
2.0706972826711093e-10	0.10277731	0.099213496	0.5267404
2.081390381961526e-10	0.10626474	0.089240916	0.52953875
2.0903159389433996e-10	0.109682165	0.081433535	0.53188014
2.1010526451206713e-10	0.114319906	0.07295222	0.53466374
2.1100259838218304e-10	0.11859511	0.06681817	0.53694546
2.120825986425228e-10	0.12418679	0.060720105	0.5396251
2.1316448828766118e-10	0.13022733	0.05607733	0.54222775
2.1406758960249816e-10	0.13553339	0.053406402	0.544336
2.1515422224485962e-10	0.14209564	0.051832605	0.5467981
2.160626353530101e-10	0.14761506	0.051964987	0.5488115
2.1715524614269154e-10	0.1542221	0.053824876	0.55119324
2.1806753410357068e-10	0.15970285	0.05669601	0.55316114
2.1916371444785604e-10	0.16621646	0.06157331	0.5555194
2.200773480684519e-10	0.17152211	0.06671234	0.5574905
2.211729797016273e-10	0.17759995	0.0740119	0.5598894
2.2208449873190747e-10	0.18230417	0.08090999	0.5619351
2.2317687731403002e-10	0.18737605	0.08999419	0.5644515
2.240864600643745e-10	0.19102874	0.09803472	0.56661475
2.2517848047057774e-10	0.19464007	0.10792859	0.56930494
2.2608962351656394e-10	0.19692303	0.116155796	0.5716336
2.270018188479726e-10	0.19843845	0.124219924	0.5740446
2.2809856633598327e-10	0.19909112	0.13353452	0.5770533
2.2901509697743928e-10	0.19858114	0.14085682	0.57966477
2.3011911943399478e-10	0.19670108	0.1489185	0.5829251
2.3104254001237028e-10	0.19411495	0.15484114	0.5857418
2.3215383407111186e-10	0.18984008	0.16074719	0.5892229
2.330821650516446e-10	0.18534708	0.1645365	0.5921953
2.3401204265261575e-10	0.18007803	0.16723587	0.5952361
2.351248854283167e-10	0.17291467	0.1690247	0.59894174
2.360476065986587e-10	0.16642591	0.16932929	0.6020391
2.371498422630086e-10	0.15821268	0.16827524	0.6057252
2.3806550405801884e-10	0.15113583	0.16623461	0.6087432
2.391625628388508e-10	0.14250506	0.16247098	0.6122736
2.400755184474552e-10	0.13532966	0.15831512	0.61511964
2.4117000491845294e-10	0.12695442	0.1521706	0.6184055
2.4208185978686613e-10	0.12035517	0.14612491	0.6210309
2.431762533685147e-10	0.1131177	0.13786471	0.6240431
2.440887954510074e-10	0.10780195	0.13030057	0.6264464
2.450023839984524e-10	0.10324004	0.12229259	0.62876046
2.461009518129006e-10	0.0988815	0.11232315	0.6314272
2.4701803686706165e-10	0.09627277	0.1039027	0.6335709
2.481207876054284e-10	0.09444394	0.093914375	0.63606346
2.490415276965231e-10	0.0940238	0.08592288	0.638087
2.5014808509132116e-10	0.09485304	0.07703558	0.6404662
2.5107218034563844e-10	0.0966832	0.0703914	0.6424192
2.5218335283320086e-10	0.100281276	0.06348421	0.6447315
2.5311192025639817e-10	0.10442974	0.05872819	0.6466367
2.540430199591911e-10	0.10955217	0.055026814	0.64852947
2.551628590461515e-10	0.11683305	0.052177086	0.6507875
2.560976586308158e-10	0.123715155	0.051232316	0.6526618
2.57031994112701e-10	0.13119312	0.051589414	0.6545367
2.581519251908115e-10	0.14073956	0.05364258	0.65679884
2.590838613384416e-10	0.14899835	0.056602187	0.6587159
2.600151558431398e-10	0.15739776	0.060592126	0.6606868
2.611326245315224e-10	0.16746795	0.06658413	0.66314954
2.620593259468902e-10	0.17559993	0.072418	0.66528976
2.6316379081995475e-10	0.18472561	0.08023668	0.66797245
2.640785429616122e-10	0.1916021	0.087268084	0.6703114
2.651697489419806e-10	0.19879773	0.09605544	0.67324406
2.660744889977275e-10	0.20381297	0.10345744	0.6757937
2.671556986105458e-10	0.20854264	0.11220399	0.678985
2.6805419353963795e-10	0.21133487	0.11923585	0.68175066
2.69130600536216e-10	0.21322483	0.12720506	0.6851823
2.7002692433130647e-10	0.21353412	0.13334104	0.6881201
2.711033634202001e-10	0.21234651	0.13998017	0.6917126
2.7200165380947955e-10	0.2100471	0.14482205	0.6947401
2.7308177908112845e-10	0.20573862	0.14968386	0.6983845
2.741647355800291e-10	0.19980893	0.1533757	0.7020076
2.7506924048089793e-10	0.19371265	0.15548818	0.7049879
2.7615669606844073e-10	0.18514122	0.1568471	0.70849186
2.7706415288267367e-10	0.17707928	0.15700522	0.7113315
2.7815448213523514e-10	0.16650121	0.1560369	0.71462476
2.7906424040878344e-10	0.15712298	0.15428998	0.7172713
2.801558218066344e-10	0.14548437	0.15114853	0.7203219
2.810629775986537e-10	0.13571648	0.14777899	0.7227407
2.82147383902304e-10	0.12420094	0.14300601	0.72548485
2.8304801477751837e-10	0.114983395	0.13852704	0.7276482
2.8412607432565535e-10	0.10467732	0.13264832	0.7301186
2.850229165408454e-10	0.09697951	0.12739761	0.73209083
2.8609815152703663e-10	0.089115	0.12077742	0.7343741
2.8717378541769267e-10	0.083001986	0.11395396	0.73659146
2.8807133221147926e-10	0.07938759	0.10823323	0.73841166
2.891488621940673e-10	0.07694721	0.10146121	0.74058783
2.9004736360376937e-10	0.076542296	0.095974706	0.7424149
2.911266854402019e-10	0.07800803	0.08967333	0.74464256
2.9202636714850115e-10	0.08079277	0.084748365	0.7465359
2.9310680219358093e-10	0.08586368	0.07935202	0.7488602
2.9400828047126743e-10	0.091382675	0.07538225	0.750845
2.950918530126467e-10	0.09933887	0.07137482	0.7532924
2.9617754028041563e-10	0.10846818	0.06832366	0.7558146
2.970837390666884e-10	0.11672502	0.066606484	0.7579705
2.9817260575845156e-10	0.12709185	0.06561918	0.7606166
2.99080493356524e-10	0.13586247	0.065719865	0.7628671
3.001692040864798e-10	0.14623976	0.06695633	0.76562047
3.0107516659461695e-10	0.15453793	0.0689214	0.76795936
3.021592427237341e-10	0.16379339	0.07239205	0.77081275
3.0306014314022704e-10	0.17073569	0.07616346	0.77322394
3.0413883823186835e-10	0.17796455	0.08162938	0.776154
3.050365562155473e-10	0.1829698	0.08686067	0.7786273
3.0611344924417313e-10	0.18764889	0.09381507	0.78162795
3.07011383746406e-10	0.19037028	0.10006644	0.78414685
3.0809016168674737e-10	0.19214393	0.107958615	0.78717935
3.0917024081188776e-10	0.19223288	0.11608722	0.79021007
3.100721337936294e-10	0.19099958	0.122905135	0.7927309
3.111575368708926e-10	0.1879513	0.1309868	0.79574805
3.1206507203608285e-10	0.18413232	0.13752453	0.7982512
3.1315813364131593e-10	0.17809655	0.1449891	0.8012345
3.140720116097157e-10	0.17195639	0.15076873	0.80369484
3.1517170501537595e-10	0.16341715	0.1570141	0.8066061
3.1608976510523193e-10	0.15547322	0.1615301	0.8089888
3.170076351216525e-10	0.14692841	0.16534397	0.8113237
3.181068487770743e-10	0.13608105	0.16894104	0.8140564
3.1902091639656914e-10	0.12669545	0.17110623	0.81627244
3.201158792876463e-10	0.11520857	0.172698	0.8188516
3.2102750944004443e-10	0.10560304	0.17319156	0.8209295
3.2212159868532413e-10	0.09422455	0.17281504	0.8233306
3.230343315006452e-10	0.08499435	0.17173587	0.8252502
3.2413168561261204e-10	0.074360594	0.16959298	0.827455
3.2504777067794133e-10	0.0659712	0.16717404	0.82921344
3.261486894334823e-10	0.056586474	0.16363677	0.83123815
3.27066828777656e-10	0.04941773	0.16027829	0.8328621
3.2816781866930625e-10	0.041698128	0.15590732	0.8347437
3.29084485477137e-10	0.036057845	0.15209118	0.8362651
3.3000069892556943e-10	0.031167656	0.14821951	0.8377556
3.311001314004492e-10	0.02629668	0.14363761	0.8395209
3.320165011981355e-10	0.023058353	0.13998093	0.8409833
3.3311678516981887e-10	0.020126509	0.13590415	0.84273547
3.340338343242411e-10	0.01843723	0.13284352	0.84419084
3.351336477642779e-10	0.01722572	0.12966074	0.84591824
3.360495715436573e-10	0.01679601	0.12747563	0.84732664
3.371476753141781e-10	0.01682853	0.12547645	0.8489552
3.3806162346978976e-10	0.017195756	0.12436825	0.8502379
3.3915701105060164e-10	0.017901586	0.12374144	0.8516537
3.400687794343037e-10	0.018599581	0.12381191	0.8527014
3.41161882637256e-10	0.019425709	0.12458877	0.85376406
3.420721571234879e-10	0.019994128	0.12578121	0.85446393
3.431638807113524e-10	0.020397797	0.12781382	0.85506135
3.4407316315947265e-10	0.020402286	0.12996048	0.85534596
3.451641988844197e-10	0.01989302	0.13301177	0.85542125
3.4607373093693843e-10	0.018960131	0.13589753	0.85526186
3.471659045240949e-10	0.017144643	0.13970329	0.8548156
3.4807683824487343e-10	0.014997243	0.14309707	0.85424685
3.4917101256214733e-10	0.0116086155	0.14733633	0.85335124
3.500829510764262e-10	0.008086845	0.15092075	0.8524483
3.511769733126089e-10	0.0030108872	0.15518296	0.85120547
3.520874010887836e-10	-0.0019216916	0.15862921	0.8500607
3.5317824432684575e-10	-0.008665159	0.16255572	0.8485845
3.5408624018158694e-10	-0.014946945	0.16559045	0.84728575
3.551751773532379e-10	-0.023234341	0.16886468	0.8456597
3.5608252036264816e-10	-0.030719452	0.17122474	0.8442562
3.571720779393913e-10	-0.04033153	0.17354599	0.8425174
3.580811346631009e-10	-0.048807964	0.17500858	0.8410211
3.5917377261320894e-10	-0.05945653	0.17614387	0.8391633
3.6008590792456546e-10	-0.06865631	0.17653133	0.8375575
3.611823385132661e-10	-0.079989456	0.17627387	0.8355523
3.620967316931139e-10	-0.089587435	0.17542596	0.8338105
3.6301113599822224e-10	-0.099235564	0.17399007	0.8320013
3.641079608571723e-10	-0.11074823	0.17149629	0.82974136
3.650214303874314e-10	-0.120163985	0.16879322	0.82778734
3.6611720439492346e-10	-0.13107342	0.16483682	0.82536584
3.670300443514911e-10	-0.139691	0.16098838	0.82329315
3.681248470573043e-10	-0.14928122	0.15577129	0.82075435
3.690365925305035e-10	-0.15652597	0.15097022	0.81860614
3.7012990611813104e-10	-0.16419427	0.14472094	0.8159988
3.7104037268535923e-10	-0.16964093	0.1391617	0.8138057
3.7213228344195153e-10	-0.17494208	0.13216694	0.8111543
3.730418584642303e-10	-0.17826368	0.12616533	0.808932
3.741331276915354e-10	-0.18087225	0.11889145	0.8062551
3.75042635687936e-10	-0.18187247	0.11287245	0.8040183
3.7613434771679567e-10	-0.18166564	0.105829	0.8013266
3.770445008337712e-10	-0.18035127	0.10020871	0.7990725
3.7813740018065066e-10	-0.17747818	0.0938861	0.79634535
3.7904872439780833e-10	-0.1740902	0.08905822	0.7940482
3.801427849847076e-10	-0.16897377	0.0838932	0.7912577
3.810546733106631e-10	-0.16396351	0.0801769	0.7889037
3.821488809057307e-10	-0.15723605	0.076491214	0.78604823
3.830605762527848e-10	-0.15118414	0.074110664	0.78364825
3.8415427714193956e-10	-0.14358887	0.07213028	0.7807556
3.850655403905645e-10	-0.13714477	0.071232334	0.77834684
3.8615924064176696e-10	-0.12947932	0.07106468	0.7754766
3.8707102472453263e-10	-0.12330127	0.07167883	0.7731142
3.8816584881798376e-10	-0.11632243	0.07330902	0.77032775
3.890788757921118e-10	-0.11100469	0.07539273	0.7680544
3.9017557565204577e-10	-0.10538206	0.07871651	0.7653924
3.910904625879515e-10	-0.10144331	0.08211731	0.76323134
3.920062051667515e-10	-0.09827501	0.086027905	0.7611214
3.9310624842334375e-10	-0.09559517	0.0912883	0.7586501
3.940238757265699e-10	-0.09437439	0.096037336	0.7566338
3.951258976194451e-10	-0.09420351	0.10201619	0.75425357
3.9604471413815894e-10	-0.095177986	0.10710307	0.7522911
3.9714765894770005e-10	-0.09770299	0.113175005	0.7499436
3.98066851028108e-10	-0.10092431	0.118086666	0.7479803
3.991696884936537e-10	-0.106083386	0.12364495	0.7456007
4.0008844967182533e-10	-0.111395724	0.1278725	0.74358803
4.010067552360914e-10	-0.11754144	0.13162613	0.7415405
4.021072167027839e-10	-0.12585768	0.13538802	0.7390307
4.030220716774642e-10	-0.13341266	0.13783285	0.7368902
4.0411742597949574e-10	-0.14301404	0.13988122	0.7342529
4.050282088420828e-10	-0.15128373	0.14082038	0.731991
4.06118742837469e-10	-0.16129452	0.1410043	0.729193
4.070257099232216e-10	-0.16952127	0.1403715	0.7267894
4.0811212808698754e-10	-0.17901298	0.13869657	0.7238195
4.090160466961954e-10	-0.18642175	0.13658158	0.7212761
4.1009920888097177e-10	-0.19449082	0.1332576	0.71815115
4.1100077112868856e-10	-0.20037325	0.12990385	0.7154972
4.1208173914075263e-10	-0.20624487	0.12528217	0.71226954
4.13162255832694e-10	-0.21065891	0.12013716	0.7090141
4.140625875555376e-10	-0.21312487	0.11555721	0.70629543
4.151432740934571e-10	-0.2145477	0.109841295	0.7030436
4.160442570660566e-10	-0.21441916	0.10499538	0.7003555
4.1712608242465456e-10	-0.21268632	0.09920352	0.6971707
4.1802832934935483e-10	-0.20995933	0.09448505	0.6945601
4.191119669862301e-10	-0.20523077	0.08905541	0.6914907
4.2001572417357755e-10	-0.20017184	0.08479797	0.68899286
4.2110108258048776e-10	-0.19291325	0.08009698	0.6860726
4.22006213690504e-10	-0.18602178	0.07658316	0.6837036
4.230929549731061e-10	-0.17696543	0.072920546	0.68093616
4.241800944328207e-10	-0.16733563	0.06991602	0.6782473
4.250861390140389e-10	-0.1591118	0.067939386	0.67606413
4.2617323892443287e-10	-0.14930065	0.066215515	0.6735106
4.270789393979736e-10	-0.14139743	0.06532917	0.671434
4.2816522612469004e-10	-0.13250996	0.06494657	0.6689968
4.290699497745522e-10	-0.12579021	0.06522043	0.66700494
4.3015492278732415e-10	-0.118761644	0.06629837	0.6646542
4.3105839556110214e-10	-0.113905154	0.067844495	0.6627234
4.321415177887315e-10	-0.10941374	0.07048357	0.6604337
4.330432996345949e-10	-0.1068557	0.07332003	0.65854114
4.341245955863816e-10	-0.10525156	0.077448346	0.6562782
4.3502502663626677e-10	-0.10513131	0.08145004	0.6543911
4.361049449328467e-10	-0.10639328	0.086855896	0.65211415
4.3700443433023036e-10	-0.10854457	0.09178984	0.6501976
4.3808333474630967e-10	-0.11232527	0.09810416	0.64786375
4.391617622893151e-10	-0.11725829	0.10469227	0.64547914
4.4006017337811366e-10	-0.12211725	0.110261366	0.6434426
4.4113795039333814e-10	-0.12867767	0.11686989	0.64092666
4.4203576512310563e-10	-0.13461857	0.122175135	0.63876057
4.4311278921090713e-10	-0.1421455	0.12812226	0.63606703
4.440102555280778e-10	-0.14861608	0.13259879	0.6337371
4.4508751265951883e-10	-0.15644759	0.13724528	0.630834
4.4616552169945034e-10	-0.16416727	0.14095888	0.62781316
4.470644707773275e-10	-0.17037676	0.14325152	0.625209
4.4814409120254653e-10	-0.17740573	0.1449616	0.62198704
4.490446481353401e-10	-0.18280058	0.14547935	0.6192306
4.5012656872815304e-10	-0.18859252	0.14498867	0.61585367
4.5102920177501554e-10	-0.19276173	0.14365573	0.61299837
4.521136815706507e-10	-0.19687818	0.14097714	0.609546
4.530185351542426e-10	-0.19950727	0.13789174	0.6066665
4.541056544689738e-10	-0.2016435	0.13325478	0.603232
4.5501264826609143e-10	-0.20254977	0.12870415	0.60040605
4.561023340715447e-10	-0.20258158	0.122558124	0.5970812
4.570115305610444e-10	-0.2017413	0.116984904	0.5943811
4.581038613857245e-10	-0.19973184	0.10991887	0.5912416
4.590149132196166e-10	-0.19727138	0.10385298	0.58871764
4.6010892831330513e-10	-0.19345646	0.096543275	0.58580405
4.6102110062111893e-10	-0.18963458	0.09057376	0.5834707
4.621161980171975e-10	-0.18438675	0.08374649	0.58077794
4.630289611362322e-10	-0.17955835	0.07848527	0.5786157
4.6412420451874256e-10	-0.17335159	0.07286453	0.5761068
4.6503631745868963e-10	-0.16794974	0.06888394	0.5740773
4.661300027875293e-10	-0.1613436	0.06507956	0.5717006
4.670406682851792e-10	-0.15585911	0.062792465	0.56975657
4.68132551004768e-10	-0.14946274	0.061164882	0.56745344
4.690417415764193e-10	-0.14440688	0.0607586	0.56554824
4.701318999860591e-10	-0.13880858	0.061407972	0.5632664
4.710397076280299e-10	-0.13462955	0.06287228	0.561359
4.721284206072378e-10	-0.13030408	0.06567559	0.5590512
4.730352152691721e-10	-0.12734438	0.068812326	0.55710375
4.741229271173902e-10	-0.12463435	0.073428154	0.5547273
4.750290747704055e-10	-0.123108864	0.07789298	0.5527067
4.761163015571043e-10	-0.122169435	0.08387107	0.55022424
4.770223425576819e-10	-0.12211993	0.08926546	0.5481006
4.781097819967242e-10	-0.12291276	0.096084915	0.5454798
4.790163353691772e-10	-0.1242538	0.10192942	0.5432321
4.80104889534303e-10	-0.12663221	0.108970396	0.5404566
4.810126603313949e-10	-0.12920801	0.11473204	0.5380801
4.821029232572532e-10	-0.13293491	0.121363655	0.53515697
4.830123521613856e-10	-0.136497	0.12654011	0.5326683
4.841047728911214e-10	-0.1412122	0.13219334	0.52962816
4.850159931699964e-10	-0.14541902	0.13633515	0.5270585
4.861104475667183e-10	-0.15068378	0.14049862	0.5239413
4.870232782162498e-10	-0.15516031	0.14320982	0.5213223
4.881194625836014e-10	-0.1605238	0.145464	0.51816183
4.890334728497594e-10	-0.16489841	0.14646088	0.5155188
4.901307124336567e-10	-0.16992676	0.14656623	0.51234275
4.910453179092494e-10	-0.17385499	0.14574225	0.5096976
4.921430064795002e-10	-0.17816535	0.1436843	0.50653124
4.930578555712796e-10	-0.18136041	0.14111929	0.5039033
4.941557740732466e-10	-0.18465357	0.13709979	0.50076807
4.95070765479748e-10	-0.18690726	0.13304657	0.4981746
4.96168748723715e-10	-0.18898663	0.12746333	0.49509123
4.97083758228341e-10	-0.19018091	0.122323364	0.49255005
4.981818800563401e-10	-0.19095658	0.11573063	0.48954016
4.990972615411162e-10	-0.19105366	0.11001996	0.4870686
5.00012894885585e-10	-0.19065541	0.10424594	0.4846337
5.011121550861104e-10	-0.18953542	0.09741145	0.48176238
5.020287429216665e-10	-0.18808112	0.09193804	0.4794118
5.03129367728922e-10	-0.1857342	0.085807554	0.47663954
5.040472439591039e-10	-0.18330042	0.081186466	0.47436655
5.051497022770219e-10	-0.17984465	0.07636709	0.4716781
5.060694321715826e-10	-0.17655668	0.07305182	0.46946505
5.071743939510991e-10	-0.1721802	0.07001555	0.46683493
5.080959174468622e-10	-0.16822976	0.068330824	0.46465927
5.090181687798011e-10	-0.16405949	0.06744982	0.46249256
5.101258909333284e-10	-0.15884984	0.06747221	0.45989758
5.110499291851721e-10	-0.1544175	0.068382844	0.45773438
5.121599202850504e-10	-0.14910504	0.07050546	0.45513287
5.130824132427756e-10	-0.14479774	0.073067434	0.45296562
5.140011451004284e-10	-0.14069694	0.07627047	0.45080072
5.150993990535526e-10	-0.1361623	0.08084117	0.44820306
5.160115177602349e-10	-0.13279599	0.08514429	0.44603726
5.171028306697897e-10	-0.12935494	0.09074798	0.4434364
5.180098870041167e-10	-0.12705426	0.09566089	0.4412671
5.190958701302803e-10	-0.12504293	0.101691425	0.43866012
5.201795385752303e-10	-0.12390662	0.10770246	0.43604523
5.210811149443092e-10	-0.12365959	0.11257419	0.433856
5.221615370052852e-10	-0.1242229	0.11811804	0.4312104
5.230609817211235e-10	-0.12540866	0.1223899	0.42898446
5.241395715929553e-10	-0.1276702	0.1269936	0.42627978
5.250380348807881e-10	-0.13022183	0.13032776	0.42399147
5.26115888081448e-10	-0.13402545	0.13365868	0.42119703
5.270140176287828e-10	-0.13775472	0.13583514	0.4188231
5.280917913284206e-10	-0.14281173	0.13768756	0.4159161
5.291697540316058e-10	-0.14838977	0.13868277	0.41294387
5.30068243945456e-10	-0.15333769	0.13884915	0.4104189
5.311467027236759e-10	-0.15950462	0.13826336	0.40733647
5.320455754427247e-10	-0.16472572	0.13714306	0.40473133
5.331243202024548e-10	-0.1709452	0.13508476	0.4015731
5.340232819613784e-10	-0.17597479	0.13282062	0.3989254
5.351017550362397e-10	-0.18167825	0.12951742	0.39574486
5.360002169497573e-10	-0.18604122	0.12634239	0.39310396
5.370780986388605e-10	-0.19067015	0.12212148	0.38996112
5.381557733411673e-10	-0.19449623	0.11756843	0.3868612
5.390537460328076e-10	-0.19697423	0.11361526	0.38431945
5.401312461727364e-10	-0.19899681	0.10879841	0.3813262